# vtk DataFile Version 3.0
DG Mesh Data Export
ASCII
DATASET UNSTRUCTURED_GRID
POINTS 396 double
1 -0 0
1 -0 0.2
0.966667 -0.133333 0
0.966667 -0.133333 0.2
0.933333 -0.266667 0
0.933333 -0.266667 0.2
0.9 -0.4 0
0.9 -0.4 0.2
0.866667 -0.533333 0
0.866667 -0.533333 0.2
0.833333 -0.666667 0
0.833333 -0.666667 0.2
0.8 -0.8 0
0.8 -0.8 0.2
0.766667 -0.933333 0
0.766667 -0.933333 0.2
0.733333 -1.06667 0
0.733333 -1.06667 0.2
0.7 -1.2 0
0.7 -1.2 0.2
0.666667 -1.33333 0
0.666667 -1.33333 0.2
0.633333 -1.46667 0
0.633333 -1.46667 0.2
0.6 -1.6 0
0.6 -1.6 0.2
0.566667 -1.73333 0
0.566667 -1.73333 0.2
0.533333 -1.86667 0
0.533333 -1.86667 0.2
0.5 -2 0
0.5 -2 0.2
0.466667 -2.13333 0
0.466667 -2.13333 0.2
0.433333 -2.26667 0
0.433333 -2.26667 0.2
0.4 -2.4 0
0.4 -2.4 0.2
0.366667 -2.53333 0
0.366667 -2.53333 0.2
0.333333 -2.66667 0
0.333333 -2.66667 0.2
0.3 -2.8 0
0.3 -2.8 0.2
0.266667 -2.93333 0
0.266667 -2.93333 0.2
0.233333 -3.06667 0
0.233333 -3.06667 0.2
0.2 -3.2 0
0.2 -3.2 0.2
0.166667 -3.33333 0
0.166667 -3.33333 0.2
0.133333 -3.46667 0
0.133333 -3.46667 0.2
0.1 -3.6 0
0.1 -3.6 0.2
0.0666667 -3.73333 0
0.0666667 -3.73333 0.2
0.0333333 -3.86667 0
0.0333333 -3.86667 0.2
0 -4 0
0 -4 0.2
-0.0333333 -3.86667 0
-0.0333333 -3.86667 0.2
-0.0666667 -3.73333 0
-0.0666667 -3.73333 0.2
-0.1 -3.6 0
-0.1 -3.6 0.2
-0.133333 -3.46667 0
-0.133333 -3.46667 0.2
-0.166667 -3.33333 0
-0.166667 -3.33333 0.2
-0.2 -3.2 0
-0.2 -3.2 0.2
-0.233333 -3.06667 0
-0.233333 -3.06667 0.2
-0.266667 -2.93333 0
-0.266667 -2.93333 0.2
-0.3 -2.8 0
-0.3 -2.8 0.2
-0.333333 -2.66667 0
-0.333333 -2.66667 0.2
-0.366667 -2.53333 0
-0.366667 -2.53333 0.2
-0.4 -2.4 0
-0.4 -2.4 0.2
-0.433333 -2.26667 0
-0.433333 -2.26667 0.2
-0.466667 -2.13333 0
-0.466667 -2.13333 0.2
-0.5 -2 0
-0.5 -2 0.2
-0.533333 -1.86667 0
-0.533333 -1.86667 0.2
-0.566667 -1.73333 0
-0.566667 -1.73333 0.2
-0.6 -1.6 0
-0.6 -1.6 0.2
-0.633333 -1.46667 0
-0.633333 -1.46667 0.2
-0.666667 -1.33333 0
-0.666667 -1.33333 0.2
-0.7 -1.2 0
-0.7 -1.2 0.2
-0.733333 -1.06667 0
-0.733333 -1.06667 0.2
-0.766667 -0.933333 0
-0.766667 -0.933333 0.2
-0.8 -0.8 0
-0.8 -0.8 0.2
-0.833333 -0.666667 0
-0.833333 -0.666667 0.2
-0.866667 -0.533333 0
-0.866667 -0.533333 0.2
-0.9 -0.4 0
-0.9 -0.4 0.2
-0.933333 -0.266667 0
-0.933333 -0.266667 0.2
-0.966667 -0.133333 0
-0.966667 -0.133333 0.2
-1 -0 0
-1 -0 0.2
-0.866667 2.48889e-17 0
-0.866667 2.48889e-17 0.2
-0.733333 4.62222e-17 0
-0.733333 4.62222e-17 0.2
-0.6 6.4e-17 0
-0.6 6.4e-17 0.2
-0.466667 7.82222e-17 0
-0.466667 7.82222e-17 0.2
-0.333333 8.88889e-17 0
-0.333333 8.88889e-17 0.2
-0.2 9.6e-17 0
-0.2 9.6e-17 0.2
-0.0666667 9.95556e-17 0
-0.0666667 9.95556e-17 0.2
0.0666667 9.95556e-17 0
0.0666667 9.95556e-17 0.2
0.2 9.6e-17 0
0.2 9.6e-17 0.2
0.333333 8.88889e-17 0
0.333333 8.88889e-17 0.2
0.466667 7.82222e-17 0
0.466667 7.82222e-17 0.2
0.6 6.4e-17 0
0.6 6.4e-17 0.2
0.733333 4.62222e-17 0
0.733333 4.62222e-17 0.2
0.866667 2.48889e-17 0
0.866667 2.48889e-17 0.2
-0.866667 -0.1 0
-0.866667 -0.1 0.2
-0.833333 -0.233333 0
-0.833333 -0.233333 0.2
-0.8 -0.366667 0
-0.8 -0.366667 0.2
-0.766667 -0.5 0
-0.766667 -0.5 0.2
-0.733333 -0.633333 0
-0.733333 -0.633333 0.2
-0.7 -0.766667 0
-0.7 -0.766667 0.2
-0.666667 -0.9 0
-0.666667 -0.9 0.2
-0.633333 -1.03333 0
-0.633333 -1.03333 0.2
-0.6 -1.16667 0
-0.6 -1.16667 0.2
-0.566667 -1.3 0
-0.566667 -1.3 0.2
-0.533333 -1.43333 0
-0.533333 -1.43333 0.2
-0.5 -1.56667 0
-0.5 -1.56667 0.2
-0.466667 -1.7 0
-0.466667 -1.7 0.2
-0.433333 -1.83333 0
-0.433333 -1.83333 0.2
-0.4 -1.96667 0
-0.4 -1.96667 0.2
-0.366667 -2.1 0
-0.366667 -2.1 0.2
-0.333333 -2.23333 0
-0.333333 -2.23333 0.2
-0.3 -2.36667 0
-0.3 -2.36667 0.2
-0.266667 -2.5 0
-0.266667 -2.5 0.2
-0.233333 -2.63333 0
-0.233333 -2.63333 0.2
-0.2 -2.76667 0
-0.2 -2.76667 0.2
-0.166667 -2.9 0
-0.166667 -2.9 0.2
-0.133333 -3.03333 0
-0.133333 -3.03333 0.2
-0.1 -3.16667 0
-0.1 -3.16667 0.2
-0.0666667 -3.3 0
-0.0666667 -3.3 0.2
-0.0333333 -3.43333 0
-0.0333333 -3.43333 0.2
-0.733333 -0.1 0
-0.733333 -0.1 0.2
-0.6 -0.1 0
-0.6 -0.1 0.2
-0.466667 -0.1 0
-0.466667 -0.1 0.2
-0.333333 -0.1 0
-0.333333 -0.1 0.2
-0.2 -0.1 0
-0.2 -0.1 0.2
-0.0666667 -0.1 0
-0.0666667 -0.1 0.2
0.0666667 -0.1 0
0.0666667 -0.1 0.2
0.2 -0.1 0
0.2 -0.1 0.2
0.333333 -0.1 0
0.333333 -0.1 0.2
0.466667 -0.1 0
0.466667 -0.1 0.2
0.6 -0.1 0
0.6 -0.1 0.2
0.733333 -0.1 0
0.733333 -0.1 0.2
0.866667 -0.1 0
0.866667 -0.1 0.2
0.833333 -0.233333 0
0.833333 -0.233333 0.2
0.8 -0.366667 0
0.8 -0.366667 0.2
0.766667 -0.5 0
0.766667 -0.5 0.2
0.733333 -0.633333 0
0.733333 -0.633333 0.2
0.7 -0.766667 0
0.7 -0.766667 0.2
0.666667 -0.9 0
0.666667 -0.9 0.2
0.633333 -1.03333 0
0.633333 -1.03333 0.2
0.6 -1.16667 0
0.6 -1.16667 0.2
0.566667 -1.3 0
0.566667 -1.3 0.2
0.533333 -1.43333 0
0.533333 -1.43333 0.2
0.5 -1.56667 0
0.5 -1.56667 0.2
0.466667 -1.7 0
0.466667 -1.7 0.2
0.433333 -1.83333 0
0.433333 -1.83333 0.2
0.4 -1.96667 0
0.4 -1.96667 0.2
0.366667 -2.1 0
0.366667 -2.1 0.2
0.333333 -2.23333 0
0.333333 -2.23333 0.2
0.3 -2.36667 0
0.3 -2.36667 0.2
0.266667 -2.5 0
0.266667 -2.5 0.2
0.233333 -2.63333 0
0.233333 -2.63333 0.2
0.2 -2.76667 0
0.2 -2.76667 0.2
0.166667 -2.9 0
0.166667 -2.9 0.2
0.133333 -3.03333 0
0.133333 -3.03333 0.2
0.1 -3.16667 0
0.1 -3.16667 0.2
0.0666667 -3.3 0
0.0666667 -3.3 0.2
0.0333333 -3.43333 0
0.0333333 -3.43333 0.2
0 -0.804167 0
0 -0.804167 0.2
0 -1.37083 0
0 -1.37083 0.2
0 -1.9375 0
0 -1.9375 0.2
-0.266667 -0.499421 0
-0.266667 -0.499421 0.2
0.321634 -0.525441 0
0.321634 -0.525441 0.2
0.238325 -1.0875 0
0.238325 -1.0875 0.2
-0.28141 -1.01619 0
-0.28141 -1.01619 0.2
0 -2.3625 0
0 -2.3625 0.2
0.0320194 -0.409886 0
0.0320194 -0.409886 0.2
-0.149572 -1.65417 0
-0.149572 -1.65417 0.2
0.15889 -1.67248 0
0.15889 -1.67248 0.2
0.376799 -0.820821 0
0.376799 -0.820821 0.2
-0.278313 -1.3027 0
-0.278313 -1.3027 0.2
0.271877 -1.35762 0
0.271877 -1.35762 0.2
-0.028797 -1.10471 0
-0.028797 -1.10471 0.2
-0.408762 -0.75396 0
-0.408762 -0.75396 0.2
0.536079 -0.37152 0
0.536079 -0.37152 0.2
-0.516657 -0.508331 0
-0.516657 -0.508331 0.2
0 -2.64583 0
0 -2.64583 0.2
-0.398353 -0.316126 0
-0.398353 -0.316126 0.2
-0.109349 -2.15 0
-0.109349 -2.15 0.2
0.116407 -2.16821 0
0.116407 -2.16821 0.2
0.235794 -0.319875 0
0.235794 -0.319875 0.2
0.193272 -0.702255 0
0.193272 -0.702255 0.2
0.526236 -0.58415 0
0.526236 -0.58415 0.2
-0.209302 -0.819128 0
-0.209302 -0.819128 0.2
-0.160106 -0.311933 0
-0.160106 -0.311933 0.2
-0.0738352 -0.59973 0
-0.0738352 -0.59973 0.2
-0.603685 -0.30557 0
-0.603685 -0.30557 0.2
-0.198721 -1.96963 0
-0.198721 -1.96963 0.2
0.205227 -1.8804 0
0.205227 -1.8804 0.2
0.43503 -1.05459 0
0.43503 -1.05459 0.2
0.197511 -0.897016 0
0.197511 -0.897016 0.2
-0.299672 -1.50984 0
-0.299672 -1.50984 0.2
0.129811 -1.23812 0
0.129811 -1.23812 0.2
-0.482349 -0.924754 0
-0.482349 -0.924754 0.2
0.321136 -1.59278 0
0.321136 -1.59278 0.2
-0.407925 -1.16083 0
-0.407925 -1.16083 0.2
0.359849 -1.20955 0
0.359849 -1.20955 0.2
0.141987 -1.48871 0
0.141987 -1.48871 0.2
-0.0949957 -0.946716 0
-0.0949957 -0.946716 0.2
-0.300571 -1.72931 0
-0.300571 -1.72931 0.2
-0.0211799 -1.5408 0
-0.0211799 -1.5408 0.2
0.149709 -0.535628 0
0.149709 -0.535628 0.2
0 -2.92917 0
0 -2.92917 0.2
-0.150757 -1.43835 0
-0.150757 -1.43835 0.2
0.666077 -0.262352 0
0.666077 -0.262352 0.2
0.531579 -0.753037 0
0.531579 -0.753037 0.2
-0.00860093 -0.252165 0
-0.00860093 -0.252165 0.2
-0.269285 -0.664891 0
-0.269285 -0.664891 0.2
-0.120922 -1.82019 0
-0.120922 -1.82019 0.2
2.77556e-17 -3.54333 0
2.77556e-17 -3.54333 0.2
0.4 -0.261147 0
0.4 -0.261147 0.2
6.93889e-18 -3.35417 0
6.93889e-18 -3.35417 0.2
-0.05 -3.8 0
-0.05 -3.8 0.2
0.05 -3.8 0
0.05 -3.8 0.2
-0.571425 -0.66369 0
-0.571425 -0.66369 0.2
0.110897 -2.53189 0
0.110897 -2.53189 0.2
-0.110897 -2.53189 0
-0.110897 -2.53189 0.2

CELLS 957 4785
4 209 208 130 210
4 252 28 253 255
4 187 83 188 189
4 372 238 236 373
4 128 127 206 207
4 52 53 277 381
4 158 157 113 159
4 167 103 166 168
4 52 50 276 277
4 294 331 295 375
4 167 166 165 352
4 23 22 25 249
4 162 161 109 163
4 45 44 47 271
4 206 205 204 335
4 212 211 330 331
4 325 286 324 365
4 36 260 262 263
4 207 128 129 208
4 103 101 100 168
4 232 8 6 233
4 239 238 301 373
4 83 81 188 189
4 176 175 95 177
4 279 342 343 359
4 123 121 122 151
4 245 243 242 355
4 107 105 164 165
4 12 13 237 239
4 97 95 174 175
4 277 201 276 381
4 326 310 287 327
4 166 165 105 167
4 182 181 89 183
4 211 132 133 212
4 42 266 268 269
4 147 145 146 223
4 226 0 148 227
4 29 26 28 253
4 20 21 245 247
4 21 19 18 245
4 340 341 289 355
4 162 109 107 163
4 380 65 56 381
4 46 47 271 273
4 190 79 78 192
4 158 113 111 159
4 57 54 56 381
4 40 42 43 267
4 50 274 276 277
4 121 119 150 151
4 201 200 199 384
4 24 248 250 251
4 59 58 61 63
4 45 43 42 269
4 44 268 270 271
4 263 38 39 265
4 243 242 18 245
4 52 276 380 381
4 159 111 160 161
4 247 246 249 351
4 270 46 271 273
4 62 60 58 63
4 115 113 156 157
4 33 32 35 259
4 58 60 61 63
4 11 8 10 235
4 180 179 91 181
4 190 189 81 191
4 244 20 245 247
4 44 42 268 269
4 48 49 273 275
4 37 34 36 261
4 138 137 136 215
4 79 76 78 192
4 162 107 106 164
4 168 167 103 169
4 172 171 99 173
4 386 64 65 388
4 125 203 204 205
4 56 54 380 381
4 169 101 170 171
4 160 161 162 390
4 63 59 58 387
4 91 89 180 181
4 186 185 85 187
4 213 212 134 214
4 48 272 274 275
4 130 129 128 208
4 260 36 261 263
4 41 39 38 265
4 44 45 269 271
4 298 299 252 350
4 143 141 142 219
4 394 187 189 395
4 202 124 203 204
4 274 50 48 275
4 268 44 269 271
4 153 117 154 155
4 380 276 201 381
4 315 191 314 367
4 253 250 252 351
4 308 309 328 376
4 342 325 279 343
4 174 173 97 175
4 48 50 51 275
4 220 144 142 221
4 316 313 317 335
4 210 131 209 211
4 272 48 273 275
4 264 40 265 267
4 305 347 304 357
4 87 85 184 185
4 101 99 170 171
4 245 242 244 355
4 79 77 192 193
4 105 103 166 167
4 135 133 134 213
4 47 46 49 273
4 178 177 93 179
4 246 22 247 249
4 34 35 259 261
4 183 87 184 185
4 341 340 289 343
4 380 201 69 381
4 333 285 332 377
4 163 107 164 165
4 32 256 258 259
4 133 211 212 213
4 46 270 272 273
4 111 109 160 161
4 200 199 71 201
[...]
CELL_DATA 957
SCALARS cell_id int 1
LOOKUP_TABLE default
0
1
2
3
4
5
6
7
8
9
10
11
12
13
14
15
16
17
18
19
20
21
22
23
24
25
26
27
28
29
30
31
32
33
34
35
36
37
38
39
40
41
42
43
44
45
46
47
48
49
50
51
52
53
54
55
56
57
58
59
60
61
62
63
64
65
66
67
68
69
70
71
72
73
74
75
76
77
78
79
80
81
82
83
84
85
86
87
88
89
90
91
92
93
94
95
96
97
98
99
100
101
102
103
104
105
106
107
108
109
110
111
112
113
114
115
116
117
118
119
120
121
122
123
124
125
126
127
128
129
130
131
132
133
134
135
136
137
138
139
140
141
142
143
144
145
146
147
148
149
150
151
152
153
154
155
156
157
158
159
160
161
162
163
164
165
166
167
168
169
170
171
172
173
174
175
176
177
178
179
180
181
182
183
184
185
186
187
188
189
190
191
192
193
194
195
196
197
198
199
200
201
202
203
204
205
206
207
208
209
210
211
212
213
214
215
216
217
218
219
220
221
222
223
224
225
226
227
228
229
230
231
232
233
234
235
236
237
238
239
240
241
242
243
244
245
246
247
248
249
250
251
252
253
254
255
256
257
258
259
260
261
262
263
264
265
266
267
268
269
270
271
272
273
274
275
276
277
278
279
280
281
282
283
284
285
286
287
288
289
290
291
292
293
294
295
296
297
298
299
300
301
302
303
304
305
306
307
308
309
310
311
312
313
314
315
316
317
318
319
320
321
322
323
324
325
326
327
328
329
330
331
332
333
334
335
336
337
338
339
340
341
342
343
344
345
346
347
348
349
350
351
352
353
354
355
356
357
358
359
360
361
362
363
364
365
366
367
368
369
370
371
372
373
374
375
376
377
378
379
380
381
382
383
384
385
386
387
388
389
390
391
392
393
394
395
396
397
398
399
400
401
402
403
404
405
406
407
408
409
410
411
412
413
414
415
416
417
418
419
420
421
422
423
424
425
426
427
428
429
430
431
432
433
434
435
436
437
438
439
440
441
442
443
444
445
446
447
448
449
450
451
452
453
454
455
456
457
458
459
460
461
462
463
464
465
466
467
468
469
470
471
472
473
474
475
476
477
478
479
480
481
482
483
484
485
486
487
488
489
490
491
492
493
494
495
496
497
498
499
500
501
502
503
504
505
506
507
508
509
510
511
512
513
514
515
516
517
518
519
520
521
522
523
524
525
526
527
528
529
530
531
532
533
534
535
536
537
538
539
540
541
542
543
544
545
546
547
548
549
550
551
552
553
554
555
556
557
558
559
560
561
562
563
564
565
566
567
568
569
570
571
572
573
574
575
576
577
578
579
580
581
582
583
584
585
586
587
588
589
590
591
592
593
594
595
596
597
598
599
600
601
602
603
604
605
606
607
608
609
610
611
612
613
614
615
616
617
618
619
620
621
622
623
624
625
626
627
628
629
630
631
632
633
634
635
636
637
638
639
640
641
642
643
644
645
646
647
648
649
650
651
652
653
654
655
656
657
658
659
660
661
662
663
664
665
666
667
668
669
670
671
672
673
674
675
676
677
678
679
680
681
682
683
684
685
686
687
688
689
690
691
692
693
694
695
696
697
698
699
700
701
702
703
704
705
706
707
708
709
710
711
712
713
714
715
716
717
718
719
720
721
722
723
724
725
726
727
728
729
730
731
732
733
734
735
736
737
738
739
740
741
742
743
744
745
746
747
748
749
750
751
752
753
754
755
756
757
758
759
760
761
762
763
764
765
766
767
768
769
770
771
772
773
774
775
776
777
778
779
780
781
782
783
784
785
786
787
788
789
790
791
792
793
794
795
796
797
798
799
800
801
802
803
804
805
806
807
808
809
810
811
812
813
814
815
816
817
818
819
820
821
822
823
824
825
826
827
828
829
830
831
832
833
834
835
836
837
838
839
840
841
842
843
844
845
846
847
848
849
850
851
852
853
854
855
856
857
858
859
860
861
862
863
864
865
866
867
868
869
870
871
872
873
874
875
876
877
878
879
880
881
882
883
884
885
886
887
888
889
890
891
892
893
894
895
896
897
898
899
900
901
902
903
904
905
906
907
908
909
910
911
912
913
914
915
916
917
918
919
920
921
922
923
924
925
926
927
928
929
930
931
932
933
934
935
936
937
938
939
940
941
942
943
944
945
946
947
948
949
950
951
952
953
954
955
956
SCALARS boundary_face_count int 1
LOOKUP_TABLE default
1
0
1
1
0
1
1
0
1
1
0
2
1
2
0
0
0
1
0
1
1
1
1
1
1
2
1
1
1
1
1
0
1
1
0
1
2
1
1
1
2
1
1
0
1
1
1
1
1
1
1
0
1
2
2
1
1
0
1
1
1
0
2
1
2
2
1
1
1
0
1
1
1
1
2
1
1
1
1
1
1
1
1
1
1
1
1
1
2
0
2
1
1
2
1
1
1
0
1
0
1
0
1
1
1
1
1
1
1
0
0
1
1
1
0
1
1
2
2
1
0
1
1
1
1
1
1
1
1
1
1
1
1
0
0
0
1
0
2
0
1
1
1
1
1
1
1
1
1
1
1
1
2
1
1
1
1
1
1
1
1
1
0
1
1
0
2
1
0
1
1
1
1
1
1
1
0
0
0
1
1
1
1
1
2
0
2
1
1
1
1
1
2
2
1
0
1
1
0
1
0
0
1
2
1
0
1
2
0
2
1
1
1
1
2
1
1
2
1
1
1
1
1
2
1
2
2
2
0
2
0
1
1
0
2
0
1
1
2
1
1
0
1
1
0
0
1
2
0
1
2
1
0
1
1
1
2
0
0
1
1
2
1
1
0
1
0
1
1
2
1
1
0
1
2
1
1
0
1
2
1
0
1
0
1
1
1
2
0
1
0
1
0
1
2
0
1
1
0
1
2
1
0
1
1
2
0
1
1
2
0
1
1
2
1
0
1
1
1
1
2
2
1
2
1
0
1
1
0
0
1
0
0
1
2
1
2
1
0
0
2
0
1
1
1
1
1
2
2
0
1
1
1
1
2
1
1
1
1
1
0
1
1
2
1
1
2
0
1
1
0
2
1
1
2
1
1
0
1
1
2
1
0
2
2
1
0
1
2
0
1
1
1
1
0
0
1
1
0
2
1
0
0
1
1
0
1
1
1
2
0
1
2
1
1
1
0
1
1
1
1
2
1
2
1
1
2
1
2
0
2
1
1
0
1
1
1
1
0
1
1
1
0
1
1
1
1
1
1
1
1
0
1
1
0
0
1
0
1
0
0
1
1
0
1
1
1
1
1
1
0
1
1
0
1
1
0
0
1
0
2
1
0
0
1
1
1
1
0
1
1
1
1
1
1
0
1
1
2
1
1
1
1
0
1
0
2
0
1
0
1
1
1
1
1
1
0
1
0
2
1
1
1
1
2
1
1
0
1
2
1
0
1
0
1
0
1
1
1
1
1
1
0
1
1
1
2
1
1
0
1
1
1
1
0
1
0
0
1
0
0
1
1
1
1
1
1
1
1
1
0
1
1
1
1
1
1
1
1
1
1
1
1
1
0
0
0
1
1
1
1
1
1
0
1
0
2
0
1
1
0
1
1
1
1
1
1
0
1
1
1
1
0
1
1
1
0
1
1
1
0
1
0
1
1
0
1
1
1
1
1
1
1
1
0
0
1
0
1
1
1
1
0
1
0
1
0
1
1
1
1
0
1
1
1
1
0
1
0
1
1
1
1
1
1
0
1
0
1
1
0
1
1
1
1
1
1
0
0
1
1
0
1
1
1
0
1
1
0
1
1
1
1
1
0
0
1
0
1
1
1
1
0
1
1
0
1
0
0
0
1
1
1
0
0
1
0
0
0
1
1
0
1
0
1
0
0
1
1
1
0
1
1
1
0
1
1
1
0
1
0
1
1
0
0
1
1
0
1
1
0
1
1
0
1
0
1
0
1
1
0
1
0
0
1
1
1
1
1
1
0
1
1
1
0
1
1
1
1
1
0
1
0
1
1
0
0
1
1
1
1
1
1
1
1
0
1
1
1
1
0
0
1
1
0
1
1
1
0
1
1
1
0
1
0
1
1
0
1
1
0
1
1
0
1
1
1
1
0
0
1
0
0
1
1
1
1
1
0
1
0
0
1
1
1
1
0
0
1
0
0
1
0
1
1
0
1
1
0
1
0
0
1
0
1
1
1
1
1
0
1
0
1
0
1
0
1
0
1
1
1
1
1
0
1
0
0
1
0
1
1
1
0
1
0
0
1
1
0
0
1
1
1
1
0
0
0
1
1
1
1
2
0
2
1
0
1
1
2
1
1
1
0
1
0
1
1
0
1
1
1
0
2
0
1
0
1
0
2
0
1
1
0
1
1
1
0
1
0
0
1
1
1
0
1
1
1
SCALARS neighbor_count int 1
LOOKUP_TABLE default
3
4
3
3
4
3
3
4
3
3
4
2
3
2
4
4
4
3
4
3
3
3
3
3
3
2
3
3
3
3
3
4
3
3
4
3
2
3
3
3
2
3
3
4
3
3
3
3
3
3
3
4
3
2
2
3
3
4
3
3
3
4
2
3
2
2
3
3
3
4
3
3
3
3
2
3
3
3
3
3
3
3
3
3
3
3
3
3
2
4
2
3
3
2
3
3
3
4
3
4
3
4
3
3
3
3
3
3
3
4
4
3
3
3
4
3
3
2
2
3
4
3
3
3
3
3
3
3
3
3
3
3
3
4
4
4
3
4
2
4
3
3
3
3
3
3
3
3
3
3
3
3
2
3
3
3
3
3
3
3
3
3
4
3
3
4
2
3
4
3
3
3
3
3
3
3
4
4
4
3
3
3
3
3
2
4
2
3
3
3
3
3
2
2
3
4
3
3
4
3
4
4
3
2
3
4
3
2
4
2
3
3
3
3
2
3
3
2
3
3
3
3
3
2
3
2
2
2
4
2
4
3
3
4
2
4
3
3
2
3
3
4
3
3
4
4
3
2
4
3
2
3
4
3
3
3
2
4
4
3
3
2
3
3
4
3
4
3
3
2
3
3
4
3
2
3
3
4
3
2
3
4
3
4
3
3
3
2
4
3
4
3
4
3
2
4
3
3
4
3
2
3
4
3
3
2
4
3
3
2
4
3
3
2
3
4
3
3
3
3
2
2
3
2
3
4
3
3
4
4
3
4
4
3
2
3
2
3
4
4
2
4
3
3
3
3
3
2
2
4
3
3
3
3
2
3
3
3
3
3
4
3
3
2
3
3
2
4
3
3
4
2
3
3
2
3
3
4
3
3
2
3
4
2
2
3
4
3
2
4
3
3
3
3
4
4
3
3
4
2
3
4
4
3
3
4
3
3
3
2
4
3
2
3
3
3
4
3
3
3
3
2
3
2
3
3
2
3
2
4
2
3
3
4
3
3
3
3
4
3
3
3
4
3
3
3
3
3
3
3
3
4
3
3
4
4
3
4
3
4
4
3
3
4
3
3
3
3
3
3
4
3
3
4
3
3
4
4
3
4
2
3
4
4
3
3
3
3
4
3
3
3
3
3
3
4
3
3
2
3
3
3
3
4
3
4
2
4
3
4
3
3
3
3
3
3
4
3
4
2
3
3
3
3
2
3
3
4
3
2
3
4
3
4
3
4
3
3
3
3
3
3
4
3
3
3
2
3
3
4
3
3
3
3
4
3
4
4
3
4
4
3
3
3
3
3
3
3
3
3
4
3
3
3
3
3
3
3
3
3
3
3
3
3
4
4
4
3
3
3
3
3
3
4
3
4
2
4
3
3
4
3
3
3
3
3
3
4
3
3
3
3
4
3
3
3
4
3
3
3
4
3
4
3
3
4
3
3
3
3
3
3
3
3
4
4
3
4
3
3
3
3
4
3
4
3
4
3
3
3
3
4
3
3
3
3
4
3
4
3
3
3
3
3
3
4
3
4
3
3
4
3
3
3
3
3
3
4
4
3
3
4
3
3
3
4
3
3
4
3
3
3
3
3
4
4
3
4
3
3
3
3
4
3
3
4
3
4
4
4
3
3
3
4
4
3
4
4
4
3
3
4
3
4
3
4
4
3
3
3
4
3
3
3
4
3
3
3
4
3
4
3
3
4
4
3
3
4
3
3
4
3
3
4
3
4
3
4
3
3
4
3
4
4
3
3
3
3
3
3
4
3
3
3
4
3
3
3
3
3
4
3
4
3
3
4
4
3
3
3
3
3
3
3
3
4
3
3
3
3
4
4
3
3
4
3
3
3
4
3
3
3
4
3
4
3
3
4
3
3
4
3
3
4
3
3
3
3
4
4
3
4
4
3
3
3
3
3
4
3
4
4
3
3
3
3
4
4
3
4
4
3
4
3
3
4
3
3
4
3
4
4
3
4
3
3
3
3
3
4
3
4
3
4
3
4
3
4
3
3
3
3
3
4
3
4
4
3
4
3
3
3
4
3
4
4
3
3
4
4
3
3
3
3
4
4
4
3
3
3
3
2
4
2
3
4
3
3
2
3
3
3
4
3
4
3
3
4
3
3
3
4
2
4
3
4
3
4
2
4
3
3
4
3
3
3
4
3
4
4
3
3
3
4
3
3
3

POINT_DATA 396
SCALARS point_id int 1
LOOKUP_TABLE default
0
1
2
3
4
5
6
7
8
9
10
11
12
13
14
15
16
17
18
19
20
21
22
23
24
25
26
27
28
29
30
31
32
33
34
35
36
37
38
39
40
41
42
43
44
45
46
47
48
49
50
51
52
53
54
55
56
57
58
59
60
61
62
63
64
65
66
67
68
69
70
71
72
73
74
75
76
77
78
79
80
81
82
83
84
85
86
87
88
89
90
91
92
93
94
95
96
97
98
99
100
101
102
103
104
105
106
107
108
109
110
111
112
113
114
115
116
117
118
119
120
121
122
123
124
125
126
127
128
129
130
131
132
133
134
135
136
137
138
139
140
141
142
143
144
145
146
147
148
149
150
151
152
153
154
155
156
157
158
159
160
161
162
163
164
165
166
167
168
169
170
171
172
173
174
175
176
177
178
179
180
181
182
183
184
185
186
187
188
189
190
191
192
193
194
195
196
197
198
199
200
201
202
203
204
205
206
207
208
209
210
211
212
213
214
215
216
217
218
219
220
221
222
223
224
225
226
227
228
229
230
231
232
233
234
235
236
237
238
239
240
241
242
243
244
245
246
247
248
249
250
251
252
253
254
255
256
257
258
259
260
261
262
263
264
265
266
267
268
269
270
271
272
273
274
275
276
277
278
279
280
281
282
283
284
285
286
287
288
289
290
291
292
293
294
295
296
297
298
299
300
301
302
303
304
305
306
307
308
309
310
311
312
313
314
315
316
317
318
319
320
321
322
323
324
325
326
327
328
329
330
331
332
333
334
335
336
337
338
339
340
341
342
343
344
345
346
347
348
349
350
351
352
353
354
355
356
357
358
359
360
361
362
363
364
365
366
367
368
369
370
371
372
373
374
375
376
377
378
379
380
381
382
383
384
385
386
387
388
389
390
391
392
393
394
395
SCALARS is_boundary_point int 1
LOOKUP_TABLE default
1
1
1
1
1
1
1
1
1
1
1
1
1
1
1
1
1
1
1
1
1
1
1
1
1
1
1
1
1
1
1
1
1
1
1
1
1
1
1
1
1
1
1
1
1
1
1
1
1
1
1
1
1
1
1
1
1
1
1
1
1
1
1
1
1
1
1
1
1
1
1
1
1
1
1
1
1
1
1
1
1
1
1
1
1
1
1
1
1
1
1
1
1
1
1
1
1
1
1
1
1
1
1
1
1
1
1
1
1
1
1
1
1
1
1
1
1
1
1
1
1
1
1
1
1
1
1
1
1
1
1
1
1
1
1
1
1
1
1
1
1
1
1
1
1
1
1
1
1
1
1
1
1
1
1
1
1
1
1
1
1
1
1
1
1
1
1
1
1
1
1
1
1
1
1
1
1
1
1
1
1
1
1
1
1
1
1
1
1
1
1
1
1
1
1
1
1
1
1
1
1
1
1
1
1
1
1
1
1
1
1
1
1
1
1
1
1
1
1
1
1
1
1
1
1
1
1
1
1
1
1
1
1
1
1
1
1
1
1
1
1
1
1
1
1
1
1
1
1
1
1
1
1
1
1
1
1
1
1
1
1
1
1
1
1
1
1
1
1
1
1
1
1
1
1
1
1
1
1
1
1
1
1
1
1
1
1
1
1
1
1
1
1
1
1
1
1
1
1
1
1
1
1
1
1
1
1
1
1
1
1
1
1
1
1
1
1
1
1
1
1
1
1
1
1
1
1
1
1
1
1
1
1
1
1
1
1
1
1
1
1
1
1
1
1
1
1
1
1
1
1
1
1
1
1
1
1
1
1
1
1
1
1
1
1
1
1
1
1
1
1
1
1
1
1
1
1
1
1
1
1
1
1
1
1
1
1
1
1
1
1
1
1
1
1
1

CELL_DATA 957
SCALARS face_ids int 4
LOOKUP_TABLE default
1157 1128 1270 961 
1190 1659 1884 1263 
1843 1598 1499 1274 
1337 1138 1313 1339 
1231 1004 1245 1408 
1436 1204 1982 1479 
1281 1825 1089 1351 
1380 1103 1378 1389 
1174 1917 2000 2011 
1885 902 1418 1899 
1332 1415 1534 1938 
1172 1165 1288 2001 
1090 1445 1719 1187 
1248 1297 1462 1464 
1470 1012 1971 2105 
1226 1161 983 1360 
1168 1162 1366 1134 
1480 1001 1160 1560 
1762 1393 1210 1185 
1212 1300 1141 1521 
1467 1331 1399 1250 
1173 1140 1221 1314 
1206 1145 1274 1111 
1286 1276 1135 1365 
1653 1425 1640 1375 
858 2278 1114 1317 
2281 1850 1989 2123 
2231 1342 1995 1363 
2164 1199 966 1119 
1181 2277 1132 1321 
1073 1475 2237 1413 
855 1108 1324 1105 
1213 1332 1483 1253 
1487 1236 1488 1002 
1305 1505 1507 1175 
1695 1452 1514 771 
1605 1518 1525 896 
1683 1608 1536 1381 
1539 1646 1549 1556 
2049 1082 1806 1357 
1622 1097 1493 1567 
1150 1545 959 1421 
986 1719 1294 984 
2257 1477 1343 1049 
1803 2014 1579 1590 
1593 1594 2251 1620 
1296 1089 1600 1601 
1106 1606 1369 1359 
1495 1609 1498 1550 
1113 1364 2011 1613 
1623 1544 1191 1407 
1692 1756 1410 1630 
1633 1222 1602 1551 
1573 1501 939 1637 
1376 930 1660 1266 
1326 922 2168 1651 
1473 1200 804 1182 
1666 2281 2155 2148 
1668 1626 1238 1497 
1671 1674 1117 1547 
1852 2103 862 1684 
1616 1612 1733 1579 
1697 1585 2225 1419 
2273 2177 1665 1702 
1703 926 1198 1214 
1662 1419 1637 1350 
1448 1020 1144 1085 
1080 1430 1368 1070 
1068 1074 1423 2160 
1061 1059 1604 1806 
911 1694 1639 1514 
1625 1055 1338 1094 
786 892 1051 1041 
1040 1849 1034 1303 
1548 1032 1620 1126 
1031 1030 916 1037 
1103 1690 1180 1029 
1227 1216 1650 1027 
1391 1025 932 1377 
1569 1412 1017 1925 
1635 1359 1343 1016 
1014 1344 1007 1167 
1159 1886 1428 1323 
1501 2216 995 1235 
1524 773 1368 1554 
992 1401 1592 989 
985 1576 1373 980 
2129 1218 1459 1115 
976 974 972 1185 
1512 1001 1691 1096 
2159 817 1143 1182 
1205 1297 1163 1997 
962 1396 958 1643 
955 1047 1320 952 
947 1133 1688 1455 
1109 1553 943 2024 
1383 2098 1459 1508 
1639 922 1406 1163 
942 1194 2102 1021 
1970 1497 941 1413 
938 973 1120 1242 
931 1088 929 2022 
928 1529 924 1652 
1798 921 1653 1701 
2081 1654 1132 913 
1486 1508 1244 1699 
1728 908 842 906 
904 2054 979 944 
895 1299 889 887 
1561 1218 885 1338 
848 1301 1610 884 
791 900 883 880 
2215 1306 873 871 
866 1028 1167 1492 
865 1989 863 861 
1038 1440 1893 1510 
1400 857 1483 1380 
1760 1152 783 1258 
1678 2014 1243 1137 
854 934 1857 1444 
851 1084 1852 1471 
1986 845 1439 1431 
844 839 837 873 
1150 836 1627 832 
1591 941 831 1257 
1347 825 971 953 
819 818 814 1995 
1482 1522 812 1322 
1507 891 1839 910 
1782 1612 1057 1069 
2085 1559 1547 1298 
1596 1692 803 1517 
800 828 1669 797 
2225 1261 995 1356 
2173 1522 2301 1661 
808 997 1183 846 
1842 1261 1866 843 
2000 1626 2237 1982 
816 1055 1437 1244 
2098 793 1617 1364 
2116 823 1423 2126 
1123 1215 1561 1057 
2051 1301 1658 1933 
867 1660 1205 1694 
2018 948 1650 1102 
1516 785 1036 2248 
782 1592 822 781 
1128 1597 777 775 
2093 2013 1135 1006 
1009 774 1857 1289 
894 1488 1251 1178 
1319 1095 1509 769 
869 767 1075 917 
1955 1709 1945 812 
1710 1615 1810 931 
1889 1714 1670 1716 
1179 1500 1720 1196 
1722 1717 1724 1726 
1727 1647 1730 1731 
1154 2238 1735 1737 
1958 1740 1742 920 
1749 1864 1753 949 
1382 1755 1759 834 
1761 1766 1770 1092 
1772 1775 1776 785 
1777 2179 1017 1779 
1563 1781 1231 964 
1783 1720 1786 1611 
1327 1781 1667 1789 
1734 1793 1794 1729 
1797 1655 1099 875 
1039 789 1367 1381 
1801 876 1021 1804 
1805 1155 1707 1807 
1465 1808 1796 1938 
1811 1247 1813 885 
799 1818 1109 1655 
1822 1824 1826 1209 
1827 1828 1207 1371 
1636 1829 1665 1362 
1832 1085 1835 1310 
1245 1836 1434 1393 
2179 1470 1667 1104 
1823 1493 2049 1837 
1840 1777 1450 1223 
1414 1841 1191 1317 
852 768 1844 1849 
2207 1250 1845 1854 
1538 1853 2030 1930 
1862 1863 1099 1909 
1867 1871 1287 1034 
1872 1084 1669 1874 
2205 1878 1020 1880 
1883 1881 1474 1887 
1549 1267 1263 1890 
1757 1241 1894 1139 
1265 896 1896 956 
864 2148 2153 865 
1898 1900 904 1273 
1300 1180 827 1713 
1902 1907 1287 1908 
1816 2024 1569 1223 
1910 772 1918 829 
1919 1082 1922 1155 
794 1146 834 790 
1926 1788 1901 850 
1928 1817 794 1520 
1932 1936 1937 1939 
1331 1942 1255 1944 
1947 886 1950 2306 
1954 1865 1091 1680 
1526 1956 957 1959 
1960 2306 1964 1372 
1966 1967 1110 1968 
2269 1562 1980 1646 
1461 1972 849 1790 
1973 1974 1960 2240 
1975 1977 1978 1780 
1981 1983 969 870 
788 1984 1169 1379 
1987 1988 1934 1990 
1991 1284 1043 1996 
1998 1515 1608 2240 
1744 1367 1523 1335 
809 2002 1623 1708 
853 1414 1433 2003 
990 1494 1708 2003 
1443 2004 1327 1779 
934 2008 1011 2012 
905 1818 1329 1816 
1929 2016 2161 1424 
1110 2023 2026 2029 
2031 1887 2164 1284 
1749 2032 2185 2034 
2035 2170 1974 1335 
1407 1179 1815 2038 
898 1783 1877 2036 
2002 2038 1121 977 
1969 1877 977 2037 
2040 2042 2046 1648 
2047 1449 2050 1716 
1786 1275 942 2052 
2055 1696 2057 1088 
1295 1993 1801 2059 
974 1157 1946 1784 
1874 1684 907 2060 
2036 1275 2062 1426 
2064 2089 2059 1426 
828 2065 1766 1222 
2067 1389 1718 1767 
1142 1141 1767 2071 
1876 2073 2273 807 
1804 1636 2075 1657 
1122 1659 1706 2078 
2080 1944 1310 1533 
1993 1657 1847 1427 
1791 807 1427 2082 
2086 1615 2055 1062 
1963 1764 2088 1851 
1451 1556 1190 1810 
2073 1799 1725 1621 
1093 1398 1621 1386 
1469 1296 1398 1353 
2090 2094 1717 2099 
1702 1281 2101 1799 
2104 1481 1586 2106 
1600 2025 1671 927 
2109 888 2085 1855 
1353 2025 1752 2110 
1315 2039 1855 2110 
1582 2113 2114 2117 
1169 856 850 936 
1738 2119 1438 2120 
888 2121 1763 2165 
2122 1064 2165 2127 
1673 986 1064 1031 
2128 2131 1156 1262 
1298 1090 1159 2121 
802 2119 2135 1125 
1240 1355 2136 1037 
2137 2139 2231 2136 
1294 1030 819 1564 
1149 1308 2120 937 
1363 1213 1465 2066 
2140 2144 1038 1032 
2147 2067 1400 784 
2139 2066 2149 2150 
2151 784 2150 1280 
2015 2154 1542 2157 
1882 1269 1290 2158 
827 1023 1014 2162 
2166 1130 866 1228 
1603 2167 2296 2169 
1521 1023 2171 2174 
2175 2146 1228 2174 
1492 1227 1858 1965 
2176 1583 2018 1953 
1765 2061 2178 2180 
1217 2084 2112 2069 
1130 1965 2293 1390 
2182 1953 1390 2186 
2187 912 1658 1609 
1102 2081 1821 1203 
1184 1388 1181 1587 
1583 1203 2190 2191 
2156 1587 2191 1879 
1321 1286 1912 1472 
2194 2195 2093 1571 
1388 1472 1540 2197 
2019 1571 2197 2200 
1006 854 2044 2268 
2203 2204 1009 1340 
2195 2268 2206 2027 
2134 1340 2027 1087 
2208 2209 2124 2210 
1289 1080 2213 1911 
2217 1705 1436 1917 
2141 1663 1524 1397 
1677 2218 967 2130 
2204 1911 796 2220 
1745 1397 2220 1656 
2212 845 1941 892 
1663 1404 2222 2223 
1502 1746 2223 2143 
1219 894 1746 1962 
1554 1487 2224 1404 
2226 1035 979 2041 
2228 2229 967 2232 
1251 2233 844 2234 
1775 1861 1614 1740 
2236 2239 2215 2243 
1233 1700 1649 2245 
2126 2246 2247 1594 
1962 2233 2249 1769 
2250 1476 2243 1769 
2239 2252 1076 2256 
1490 2258 2256 1629 
1994 782 2258 2262 
871 992 2263 2252 
1933 1197 1528 2264 
1311 2266 1705 1721 
822 1819 1843 1147 
2246 2267 1893 2270 
2274 1578 1206 1905 
1409 1112 2275 1892 
1065 1456 1686 1859 
2262 1819 950 1834 
879 2279 1905 1834 
1252 1204 2074 2006 
1111 1068 2282 2091 
2284 2288 2290 2291 
2292 1593 2116 2294 
1416 1143 860 1283 
1578 2091 2297 1024 
881 2294 1024 1046 
860 1052 884 1079 
1118 2290 1931 2300 
2241 2020 1000 2302 
2304 2307 2302 1916 
1699 1617 780 1721 
1510 2284 766 765 
764 1118 761 1645 
2144 765 760 2092 
759 761 2092 758 
756 1137 1625 1215 
1645 1537 754 753 
1405 1748 878 753 
1931 1537 2241 965 
1743 1642 2304 878 
2043 752 803 751 
1916 2228 1272 1999 
750 1004 1148 1762 
1915 748 1677 747 
1642 1999 1888 746 
745 747 746 743 
742 740 1477 739 
737 736 1016 1238 
2130 1596 735 1234 
2058 734 2043 733 
748 1234 1264 731 
730 733 731 728 
1841 727 725 724 
1114 723 725 1797 
2097 723 799 999 
1072 1619 722 1175 
1815 727 721 720 
1500 718 1862 720 
716 1520 1382 713 
1870 712 1334 1784 
783 711 1373 824 
1789 1408 709 708 
706 704 703 701 
2178 700 1831 1048 
741 699 698 696 
2265 695 2054 1831 
1795 700 696 2196 
2275 694 693 690 
1532 2196 688 695 
1171 685 684 1299 
2010 685 744 1305 
1210 1820 1946 1260 
1334 1541 1270 895 
1619 985 1839 1258 
683 2063 682 1698 
908 681 1929 680 
1558 2083 1374 1112 
684 679 678 1505 
970 1195 677 675 
1260 674 1463 1566 
671 1907 1395 1303 
669 1116 2042 902 
668 1054 713 1568 
667 1541 1171 665 
663 1385 2138 662 
661 1727 2161 1896 
824 1908 779 659 
1322 658 982 1968 
1239 656 653 652 
651 715 1417 1458 
2101 1352 787 650 
1691 1417 648 646 
644 1146 643 1845 
2235 1755 1399 1771 
640 1170 1318 2007 
1904 638 2070 2157 
1854 1255 806 1880 
2219 1199 1101 1036 
637 636 1950 1981 
1013 711 1902 635 
1979 634 633 682 
673 632 1817 870 
1871 1531 630 1058 
629 626 1936 2117 
630 625 2114 624 
1844 626 625 623 
1273 2112 1202 1679 
2113 621 1349 620 
1607 952 701 1083 
1349 1589 703 618 
1939 1589 1846 1083 
704 1065 1098 923 
1693 616 1170 906 
1098 615 842 1211 
1320 616 615 1992 
613 1666 755 1988 
2007 2016 612 956 
1144 1881 611 608 
1420 1624 2202 636 
1856 663 815 604 
603 599 1977 604 
1394 598 596 593 
1730 1485 815 683 
1525 599 1485 1860 
592 1891 589 588 
586 585 584 588 
1515 589 1964 963 
1193 2202 585 963 
2138 2005 1536 592 
1780 2005 2072 789 
1624 581 1983 1054 
580 1008 1268 579 
1759 578 1354 628 
978 577 1738 1706 
1771 628 1225 576 
1225 575 574 573 
1309 1837 1061 2153 
572 1794 570 633 
830 569 567 576 
584 634 566 565 
1385 586 1201 1979 
1835 602 2108 611 
1282 564 563 562 
560 558 1776 556 
555 554 553 1312 
551 2227 550 549 
805 546 544 1249 
1463 775 543 1954 
542 541 539 1793 
1572 1676 1361 538 
920 537 546 1726 
1952 1285 1956 1092 
2280 1682 1616 2168 
1652 639 536 856 
1043 558 534 966 
1685 926 1661 533 
532 1059 531 2015 
527 602 1996 525 
707 524 523 2193 
522 520 1724 2189 
519 1807 851 531 
1063 517 1889 515 