# vtk DataFile Version 3.0
DG Mesh Data Export
ASCII
DATASET UNSTRUCTURED_GRID
POINTS 272 double
1 -0 0
1 -0 0.25
0.958333 -0.166667 0
0.958333 -0.166667 0.25
0.916667 -0.333333 0
0.916667 -0.333333 0.25
0.875 -0.5 0
0.875 -0.5 0.25
0.833333 -0.666667 0
0.833333 -0.666667 0.25
0.791667 -0.833333 0
0.791667 -0.833333 0.25
0.75 -1 0
0.75 -1 0.25
0.708333 -1.16667 0
0.708333 -1.16667 0.25
0.666667 -1.33333 0
0.666667 -1.33333 0.25
0.625 -1.5 0
0.625 -1.5 0.25
0.583333 -1.66667 0
0.583333 -1.66667 0.25
0.541667 -1.83333 0
0.541667 -1.83333 0.25
0.5 -2 0
0.5 -2 0.25
0.458333 -2.16667 0
0.458333 -2.16667 0.25
0.416667 -2.33333 0
0.416667 -2.33333 0.25
0.375 -2.5 0
0.375 -2.5 0.25
0.333333 -2.66667 0
0.333333 -2.66667 0.25
0.291667 -2.83333 0
0.291667 -2.83333 0.25
0.25 -3 0
0.25 -3 0.25
0.208333 -3.16667 0
0.208333 -3.16667 0.25
0.166667 -3.33333 0
0.166667 -3.33333 0.25
0.125 -3.5 0
0.125 -3.5 0.25
0.0833333 -3.66667 0
0.0833333 -3.66667 0.25
0.0416667 -3.83333 0
0.0416667 -3.83333 0.25
0 -4 0
0 -4 0.25
-0.0416667 -3.83333 0
-0.0416667 -3.83333 0.25
-0.0833333 -3.66667 0
-0.0833333 -3.66667 0.25
-0.125 -3.5 0
-0.125 -3.5 0.25
-0.166667 -3.33333 0
-0.166667 -3.33333 0.25
-0.208333 -3.16667 0
-0.208333 -3.16667 0.25
-0.25 -3 0
-0.25 -3 0.25
-0.291667 -2.83333 0
-0.291667 -2.83333 0.25
-0.333333 -2.66667 0
-0.333333 -2.66667 0.25
-0.375 -2.5 0
-0.375 -2.5 0.25
-0.416667 -2.33333 0
-0.416667 -2.33333 0.25
-0.458333 -2.16667 0
-0.458333 -2.16667 0.25
-0.5 -2 0
-0.5 -2 0.25
-0.541667 -1.83333 0
-0.541667 -1.83333 0.25
-0.583333 -1.66667 0
-0.583333 -1.66667 0.25
-0.625 -1.5 0
-0.625 -1.5 0.25
-0.666667 -1.33333 0
-0.666667 -1.33333 0.25
-0.708333 -1.16667 0
-0.708333 -1.16667 0.25
-0.75 -1 0
-0.75 -1 0.25
-0.791667 -0.833333 0
-0.791667 -0.833333 0.25
-0.833333 -0.666667 0
-0.833333 -0.666667 0.25
-0.875 -0.5 0
-0.875 -0.5 0.25
-0.916667 -0.333333 0
-0.916667 -0.333333 0.25
-0.958333 -0.166667 0
-0.958333 -0.166667 0.25
-1 -0 0
-1 -0 0.25
-0.833333 3.05556e-17 0
-0.833333 3.05556e-17 0.25
-0.666667 5.55556e-17 0
-0.666667 5.55556e-17 0.25
-0.5 7.5e-17 0
-0.5 7.5e-17 0.25
-0.333333 8.88889e-17 0
-0.333333 8.88889e-17 0.25
-0.166667 9.72222e-17 0
-0.166667 9.72222e-17 0.25
-5.55112e-17 1e-16 0
-5.55112e-17 1e-16 0.25
0.166667 9.72222e-17 0
0.166667 9.72222e-17 0.25
0.333333 8.88889e-17 0
0.333333 8.88889e-17 0.25
0.5 7.5e-17 0
0.5 7.5e-17 0.25
0.666667 5.55556e-17 0
0.666667 5.55556e-17 0.25
0.833333 3.05556e-17 0
0.833333 3.05556e-17 0.25
-0.833333 -0.125 0
-0.833333 -0.125 0.25
-0.791667 -0.291667 0
-0.791667 -0.291667 0.25
-0.75 -0.458333 0
-0.75 -0.458333 0.25
-0.708333 -0.625 0
-0.708333 -0.625 0.25
-0.666667 -0.791667 0
-0.666667 -0.791667 0.25
-0.625 -0.958333 0
-0.625 -0.958333 0.25
-0.583333 -1.125 0
-0.583333 -1.125 0.25
-0.541667 -1.29167 0
-0.541667 -1.29167 0.25
-0.5 -1.45833 0
-0.5 -1.45833 0.25
-0.458333 -1.625 0
-0.458333 -1.625 0.25
-0.416667 -1.79167 0
-0.416667 -1.79167 0.25
-0.375 -1.95833 0
-0.375 -1.95833 0.25
-0.333333 -2.125 0
-0.333333 -2.125 0.25
-0.291667 -2.29167 0
-0.291667 -2.29167 0.25
-0.25 -2.45833 0
-0.25 -2.45833 0.25
-0.208333 -2.625 0
-0.208333 -2.625 0.25
-0.166667 -2.79167 0
-0.166667 -2.79167 0.25
-0.125 -2.95833 0
-0.125 -2.95833 0.25
-0.0833333 -3.125 0
-0.0833333 -3.125 0.25
-0.0416667 -3.29167 0
-0.0416667 -3.29167 0.25
-0.666667 -0.125 0
-0.666667 -0.125 0.25
-0.5 -0.125 0
-0.5 -0.125 0.25
-0.333333 -0.125 0
-0.333333 -0.125 0.25
-0.166667 -0.125 0
-0.166667 -0.125 0.25
-5.55112e-17 -0.125 0
-5.55112e-17 -0.125 0.25
0.166667 -0.125 0
0.166667 -0.125 0.25
0.333333 -0.125 0
0.333333 -0.125 0.25
0.5 -0.125 0
0.5 -0.125 0.25
0.666667 -0.125 0
0.666667 -0.125 0.25
0.833333 -0.125 0
0.833333 -0.125 0.25
0.791667 -0.291667 0
0.791667 -0.291667 0.25
0.75 -0.458333 0
0.75 -0.458333 0.25
0.708333 -0.625 0
0.708333 -0.625 0.25
0.666667 -0.791667 0
0.666667 -0.791667 0.25
0.625 -0.958333 0
0.625 -0.958333 0.25
0.583333 -1.125 0
0.583333 -1.125 0.25
0.541667 -1.29167 0
0.541667 -1.29167 0.25
0.5 -1.45833 0
0.5 -1.45833 0.25
0.458333 -1.625 0
0.458333 -1.625 0.25
0.416667 -1.79167 0
0.416667 -1.79167 0.25
0.375 -1.95833 0
0.375 -1.95833 0.25
0.333333 -2.125 0
0.333333 -2.125 0.25
0.291667 -2.29167 0
0.291667 -2.29167 0.25
0.25 -2.45833 0
0.25 -2.45833 0.25
0.208333 -2.625 0
0.208333 -2.625 0.25
0.166667 -2.79167 0
0.166667 -2.79167 0.25
0.125 -2.95833 0
0.125 -2.95833 0.25
0.0833333 -3.125 0
0.0833333 -3.125 0.25
0.0416667 -3.29167 0
0.0416667 -3.29167 0.25
0 -3.68333 0
0 -3.68333 0.25
0 -3.55 0
0 -3.55 0.25
0 -0.890625 0
0 -0.890625 0.25
0 -1.42187 0
0 -1.42187 0.25
-0.25 -0.544094 0
-0.25 -0.544094 0.25
0.278709 -0.556593 0
0.278709 -0.556593 0.25
-5.55112e-17 -1.95312 0
-5.55112e-17 -1.95312 0.25
-0.222631 -1.15625 0
-0.222631 -1.15625 0.25
0.222631 -1.15625 0
0.222631 -1.15625 0.25
-0.313903 -0.853641 0
-0.313903 -0.853641 0.25
0.328596 -0.863709 0
0.328596 -0.863709 0.25
-5.55112e-17 -2.30729 0
-5.55112e-17 -2.30729 0.25
-0.136686 -1.6875 0
-0.136686 -1.6875 0.25
0.145509 -1.71027 0
0.145509 -1.71027 0.25
0.0174475 -0.41952 0
0.0174475 -0.41952 0.25
-0.482402 -0.398615 0
-0.482402 -0.398615 0.25
-0.252392 -1.4073 0
-0.252392 -1.4073 0.25
0.252392 -1.4073 0
0.252392 -1.4073 0.25
-8.73734e-17 -3.41747 0
-8.73734e-17 -3.41747 0.25
0.416667 -0.3548 0
0.416667 -0.3548 0.25
-0.467044 -0.653219 0
-0.467044 -0.653219 0.25
0.482949 -0.657196 0
0.482949 -0.657196 0.25
-0.25 -0.326262 0
-0.25 -0.326262 0.25
-5.55112e-17 -3.19271 0
-5.55112e-17 -3.19271 0.25
-5.55112e-17 -2.66146 0
-5.55112e-17 -2.66146 0.25
-0.138622 -2.16486 0
-0.138622 -2.16486 0.25
0.138622 -2.16486 0
0.138622 -2.16486 0.25

CELLS 630 3150
4 245 197 196 253
4 14 190 192 193
4 67 65 150 151
4 36 37 213 215
4 108 107 168 169
4 132 131 85 133
4 49 46 48 51
4 47 46 49 51
4 191 190 14 193
4 163 162 102 164
4 48 46 50 51
4 35 33 32 211
4 218 53 51 219
4 69 67 148 149
4 268 230 143 269
4 156 155 61 157
4 148 67 66 150
4 65 64 67 150
4 83 81 134 135
4 214 38 36 215
4 10 186 188 189
4 168 166 262 263
4 10 11 187 189
4 12 14 15 191
4 232 133 135 233
4 226 249 258 259
4 210 34 211 213
4 35 34 37 213
4 31 30 33 209
4 218 51 46 219
4 142 141 75 143
4 201 24 25 203
4 36 38 39 215
4 209 208 32 211
4 13 12 15 191
4 205 204 28 207
4 199 196 198 245
4 215 214 38 217
4 87 85 130 131
4 238 190 188 239
4 252 196 194 253
4 128 127 89 129
4 46 44 218 219
4 136 135 81 137
4 34 210 212 213
4 222 223 227 237
4 189 186 188 239
4 219 44 218 220
4 248 161 123 249
4 235 190 238 239
4 262 249 226 263
4 34 35 211 213
4 237 227 226 259
4 43 42 45 221
4 131 133 236 237
4 32 208 210 211
4 236 222 226 237
4 6 8 9 185
4 192 16 193 195
4 81 79 136 137
4 161 123 160 248
4 201 200 24 203
4 175 173 174 257
4 53 219 220 221
4 73 71 144 145
4 138 137 79 139
4 208 32 30 209
4 241 240 147 269
4 248 249 226 262
4 3 1 0 179
4 111 109 110 169
4 146 145 71 147
4 28 204 206 207
4 41 38 40 217
4 36 212 214 215
4 22 198 200 201
4 77 75 140 141
4 219 45 44 221
4 270 202 200 271
4 182 6 183 185
4 229 239 260 261
4 26 28 29 205
4 18 194 196 197
4 209 32 33 211
4 147 69 148 149
4 102 103 163 164
4 168 107 167 169
4 215 38 39 217
4 143 73 144 145
4 129 87 130 131
4 139 77 140 141
4 26 27 203 205
4 140 141 142 242
4 232 222 236 237
4 127 129 258 259
4 7 6 9 185
4 128 89 87 129
4 7 4 6 183
4 212 36 213 215
4 3 0 2 179
4 224 225 233 251
4 120 98 97 121
4 133 83 134 135
4 162 102 101 163
4 51 47 46 219
4 160 99 121 161
4 160 100 161 162
4 220 42 254 255
4 254 55 220 255
4 221 43 42 255
4 37 36 39 215
4 36 34 212 213
4 205 28 29 207
4 30 32 33 209
4 12 188 190 191
4 146 71 69 147
4 166 106 105 167
4 20 18 196 197
4 142 75 73 143
4 17 15 14 193
4 244 198 196 245
4 138 79 77 139
4 257 229 260 261
4 168 110 108 169
4 173 172 114 174
4 132 85 83 133
4 21 20 23 199
4 99 97 98 121
4 107 108 109 169
4 6 4 182 183
4 266 206 240 267
4 161 100 101 162
4 5 3 2 181
4 124 125 126 248
4 12 13 189 191
4 164 103 163 165
4 100 99 160 161
4 126 125 91 127
4 16 17 193 195
4 11 8 10 187
4 174 116 114 175
4 123 93 124 125
4 21 19 18 197
4 160 123 122 248
4 238 223 235 239
4 2 3 179 181
4 93 91 124 125
4 102 101 100 162
4 24 200 202 203
4 107 105 106 167
4 10 8 186 187
4 121 123 160 161
4 178 0 118 179
4 97 95 120 121
4 122 121 95 123
4 189 188 191 239
4 103 102 104 164
4 101 161 162 163
4 193 190 192 235
4 12 10 188 189
4 91 89 126 127
4 119 118 0 179
4 110 109 108 169
4 122 95 93 123
4 184 8 6 185
4 111 112 113 171
4 11 9 8 187
4 130 131 132 236
4 178 2 0 179
4 119 0 1 179
4 95 94 97 120
4 98 97 96 120
4 94 96 97 120
4 103 101 102 163
4 99 100 101 161
4 103 104 105 165
4 260 184 182 261
4 139 138 137 250
4 4 180 182 183
4 85 82 84 132
4 167 168 169 263
4 238 229 223 239
4 6 182 184 185
4 121 95 120 122
4 95 93 92 122
4 120 95 94 122
4 95 92 94 122
4 130 85 84 132
4 195 192 194 253
4 191 188 190 239
4 93 122 123 124
4 91 90 93 124
4 41 39 38 217
4 122 93 92 124
4 90 92 93 124
4 6 7 183 185
4 186 10 187 189
4 89 88 91 126
4 125 91 124 126
4 256 180 176 257
4 124 91 90 126
4 91 88 90 126
4 220 44 42 221
4 248 123 125 249
4 195 18 19 197
4 126 89 88 128
4 89 86 88 128
4 89 87 86 128
4 127 89 126 128
4 137 139 250 251
4 217 215 214 265
4 87 128 129 130
4 85 84 87 130
4 134 132 133 232
4 128 87 86 130
4 84 86 87 130
4 158 59 57 159
4 85 83 82 132
4 234 192 190 235
4 131 85 130 132
4 67 64 66 150
4 16 18 19 195
4 61 59 156 157
4 83 132 133 134
4 195 194 18 197
4 81 80 83 134
4 196 20 197 199
4 132 83 82 134
4 80 82 83 134
4 149 240 241 267
4 135 81 134 136
4 201 198 200 245
4 79 78 81 136
4 182 257 260 261
4 149 67 148 150
4 134 81 80 136
4 81 78 80 136
4 20 196 198 199
4 136 79 78 138
4 79 76 78 138
4 79 77 76 138
4 137 79 136 138
4 77 138 139 140
4 257 256 182 260
4 75 74 77 140
4 226 227 249 259
4 138 77 76 140
4 74 76 77 140
4 27 25 24 203
4 140 75 74 142
4 75 72 74 142
4 75 73 72 142
4 57 55 254 255
4 141 75 140 142
4 31 29 28 207
4 73 142 143 144
4 71 70 73 144
4 142 73 72 144
4 70 72 73 144
4 220 219 44 221
4 144 71 70 146
4 71 68 70 146
4 71 69 68 146
4 150 149 67 151
4 145 71 144 146
4 202 26 203 205
4 69 146 147 148
4 152 151 65 153
4 67 66 69 148
4 270 204 202 271
4 146 69 68 148
4 66 68 69 148
4 231 200 244 245
4 152 65 63 153
4 153 63 154 155
4 63 61 154 155
4 38 214 216 217
4 151 65 150 152
4 65 63 62 152
4 150 65 64 152
4 65 62 64 152
4 37 34 36 213
4 152 63 62 154
4 60 62 63 154
4 63 152 153 154
4 61 60 63 154
4 55 53 220 221
4 158 157 59 159
4 155 61 154 156
4 59 58 61 156
4 154 61 60 156
4 61 58 60 156
4 40 38 216 217
4 157 59 156 158
4 59 57 56 158
4 156 59 58 158
4 59 56 58 158
4 121 120 98 160
4 98 99 121 160
4 99 98 100 160
4 139 242 250 251
4 120 121 122 160
4 123 122 121 160
4 105 165 166 167
4 177 176 118 178
4 115 113 114 173
4 115 116 117 175
4 104 103 164 165
4 172 114 112 173
4 248 164 163 249
4 262 226 246 263
4 226 227 246 263
4 237 236 129 259
4 125 127 248 249
4 258 249 127 259
4 181 4 5 183
4 232 233 222 237
4 248 127 126 258
4 133 232 236 237
4 115 114 116 175
4 170 112 110 171
4 256 173 171 257
4 256 171 247 257
4 262 246 168 263
4 227 226 249 263
4 164 104 165 166
4 165 104 105 166
4 106 105 104 166
4 114 173 174 175
4 2 4 5 181
4 119 117 118 177
4 167 166 106 168
4 106 107 167 168
4 107 106 108 168
4 7 5 4 183
4 224 233 232 251
4 22 20 198 199
4 175 174 116 176
4 169 168 110 170
4 111 110 112 171
4 110 169 170 171
4 110 111 169 171
4 171 170 112 172
4 114 113 112 173
4 112 171 172 173
4 171 112 113 173
4 114 115 173 175
4 190 14 12 191
4 180 4 2 181
4 176 118 116 177
4 118 117 116 177
4 177 180 181 257
4 23 22 25 201
4 116 175 176 177
4 175 116 117 177
4 179 177 178 181
4 180 178 177 181
4 179 178 2 181
4 180 2 178 181
4 118 177 178 179
4 118 119 177 179
4 181 180 4 183
4 27 24 26 203
4 22 24 25 201
4 256 247 229 257
4 30 28 206 207
4 188 12 189 191
4 256 174 173 257
4 176 175 174 257
4 178 177 176 180
4 270 200 231 271
4 11 10 13 189
4 176 174 256 257
4 185 8 9 187
4 246 223 228 247
4 8 184 186 187
4 185 184 8 187
4 200 24 22 201
4 17 16 19 195
4 245 196 252 253
4 183 182 185 261
4 177 175 176 257
4 239 187 186 261
4 13 10 12 189
4 22 23 199 201
4 17 14 16 193
4 191 14 15 193
4 225 243 244 245
4 227 223 246 247
4 266 208 206 267
4 217 214 216 265
4 194 18 16 195
4 124 122 123 248
4 240 206 204 241
4 16 14 192 193
4 198 22 199 201
4 232 132 133 236
4 203 201 200 271
4 206 207 241 267
4 21 18 20 197
4 183 180 182 257
4 129 128 127 258
4 23 20 22 199
4 157 159 264 265
4 16 192 194 195
4 31 28 30 207
4 133 132 131 236
4 192 193 235 253
4 204 28 26 205
4 20 21 197 199
4 196 244 245 252
4 30 206 208 209
4 147 240 268 269
4 206 30 207 209
4 35 32 34 211
4 147 146 145 268
4 249 127 248 258
4 240 146 147 268
4 26 24 202 203
4 197 196 199 245
4 230 142 143 242
4 34 32 210 211
4 193 192 195 253
4 197 194 196 253
4 243 242 139 251
4 209 206 208 267
4 27 26 29 205
4 185 182 184 261
4 26 202 204 205
4 30 31 207 209
4 244 200 198 245
4 207 206 209 267
4 211 153 210 213
4 201 231 200 271
4 155 212 213 215
4 41 40 43 255
4 248 163 161 249
4 53 51 50 218
4 207 205 204 241
4 240 147 149 241
4 207 204 206 241
4 223 229 228 247
4 42 220 221 255
4 241 204 270 271
4 205 202 204 271
4 241 205 204 271
4 43 40 42 255
4 220 55 221 255
4 266 153 210 267
4 266 210 208 267
4 153 211 210 267
4 151 153 266 267
4 210 153 152 212
4 154 152 153 212
4 246 170 169 247
4 154 153 155 212
4 212 153 155 213
4 212 210 153 213
4 42 44 45 221
4 42 40 254 255
4 157 156 155 214
4 155 154 212 214
4 154 155 156 214
4 212 155 214 215
4 155 157 214 215
4 249 248 164 262
4 40 41 217 255
4 264 216 214 265
4 159 217 216 265
4 264 159 216 265
4 51 46 50 218
4 53 50 52 218
4 159 158 157 264
4 47 44 46 219
4 47 45 44 219
4 180 177 176 257
4 216 40 217 255
4 40 216 254 255
4 159 57 254 255
4 55 52 54 220
4 52 53 218 220
4 53 52 55 220
4 219 218 53 220
4 199 198 201 245
4 171 169 170 247
4 145 147 268 269
4 250 224 232 251
4 236 128 129 258
4 256 182 180 257
4 170 169 168 246
4 233 232 133 237
4 226 236 237 259
4 231 201 200 245
4 231 230 143 243
4 222 227 226 237
4 187 186 189 239
4 229 256 257 260
4 193 191 190 235
4 134 133 135 232
4 144 145 146 268
4 163 164 165 249
4 246 169 168 263
4 242 138 139 250
4 232 135 250 251
4 143 230 242 243
4 161 160 162 248
4 260 186 184 261
4 222 233 223 237
4 143 142 141 242
4 183 181 180 257
4 242 139 141 243
4 124 123 125 248
4 141 143 242 243
4 238 188 186 239
4 130 128 129 236
4 130 129 131 236
4 235 191 190 239
4 192 235 252 253
4 252 235 225 253
4 233 232 222 234
4 233 224 232 234
4 225 224 233 234
4 233 222 223 234
4 203 202 205 271
4 233 225 234 235
4 223 233 234 235
4 236 129 131 237
4 234 222 223 238
4 228 223 222 238
4 190 234 235 238
4 234 223 235 238
4 229 223 228 238
4 140 139 141 242
4 148 147 149 240
4 240 149 266 267
4 149 151 266 267
4 242 243 224 251
4 250 242 224 251
4 241 240 206 267
4 140 138 139 242
4 224 243 225 251
4 148 146 147 240
4 243 242 224 244
4 169 246 247 263
4 200 230 231 244
4 243 231 230 244
4 252 194 192 253
4 197 195 194 253
4 243 230 242 244
4 243 224 225 244
4 244 243 231 245
4 163 161 162 248
4 223 228 222 246
4 223 222 227 246
4 227 222 226 246
4 129 236 258 259
4 258 236 226 259
4 127 126 125 248
4 136 137 138 250
4 214 157 156 264
4 164 163 162 248
4 246 227 247 263
4 135 134 232 250
4 134 135 136 250
4 244 224 225 252
4 234 225 224 252
4 137 136 135 250
4 135 232 233 251
4 135 137 250 251
4 216 159 158 254
4 235 234 192 252
4 244 225 245 252
4 235 225 234 252
4 252 225 245 253
4 182 183 257 261
4 158 57 56 254
4 54 56 57 254
4 55 54 57 254
4 57 158 159 254
4 144 142 143 268
4 54 55 220 254
4 254 216 159 255
4 217 159 216 255
4 247 246 170 256
4 228 246 247 256
4 170 171 247 256
4 247 229 228 256
4 126 127 128 258
4 173 171 172 256
4 174 173 172 256
4 249 248 226 258
4 172 171 170 256
4 239 186 260 261
4 228 229 238 260
4 239 238 229 260
4 186 238 239 260
4 249 164 165 262
4 256 229 228 260
4 165 164 166 262
4 187 184 186 261
4 187 185 184 261
4 156 157 158 264
4 159 216 158 264
4 168 167 166 263
4 165 249 262 263
4 166 165 262 263
4 167 165 166 263
4 264 214 157 265
4 215 157 214 265
4 203 200 202 271
4 151 150 149 266
4 149 148 240 266
4 148 149 150 266
4 144 143 145 268
4 142 230 143 268
4 230 200 231 270
4 153 210 152 266
4 153 152 151 266
4 150 151 152 266
4 211 208 210 267
4 211 209 208 267
4 230 231 143 269
4 268 143 145 269
4 269 268 230 270
4 269 240 268 270
4 204 240 241 270
4 269 241 240 270
4 269 230 231 270
4 270 269 241 271
4 231 269 270 271

CELL_TYPES 630
10
10
10
10
10
10
10
10
10
10
10
10
10
10
10
10
10
10
10
10
10
10
10
10
10
10
10
10
10
10
10
10
10
10
10
10
10
10
10
10
10
10
10
10
10
10
10
10
10
10
10
10
10
10
10
10
10
10
10
10
10
10
10
10
10
10
10
10
10
10
10
10
10
10
10
10
10
10
10
10
10
10
10
10
10
10
10
10
10
10
10
10
10
10
10
10
10
10
10
10
10
10
10
10
10
10
10
10
10
10
10
10
10
10
10
10
10
10
10
10
10
10
10
10
10
10
10
10
10
10
10
10
10
10
10
10
10
10
10
10
10
10
10
10
10
10
10
10
10
10
10
10
10
10
10
10
10
10
10
10
10
10
10
10
10
10
10
10
10
10
10
10
10
10
10
10
10
10
10
10
10
10
10
10
10
10
10
10
10
10
10
10
10
10
10
10
10
10
10
10
10
10
10
10
10
10
10
10
10
10
10
10
10
10
10
10
10
10
10
10
10
10
10
10
10
10
10
10
10
10
10
10
10
10
10
10
10
10
10
10
10
10
10
10
10
10
10
10
10
10
10
10
10
10
10
10
10
10
10
10
10
10
10
10
10
10
10
10
10
10
10
10
10
10
10
10
10
10
10
10
10
10
10
10
10
10
10
10
10
10
10
10
10
10
10
10
10
10
10
10
10
10
10
10
10
10
10
10
10
10
10
10
10
10
10
10
10
10
10
10
10
10
10
10
10
10
10
10
10
10
10
10
10
10
10
10
10
10
10
10
10
10
10
10
10
10
10
10
10
10
10
10
10
10
10
10
10
10
10
10
10
10
10
10
10
10
10
10
10
10
10
10
10
10
10
10
10
10
10
10
10
10
10
10
10
10
10
10
10
10
10
10
10
10
10
10
10
10
10
10
10
10
10
10
10
10
10
10
10
10
10
10
10
10
10
10
10
10
10
10
10
10
10
10
10
10
10
10
10
10
10
10
10
10
10
10
10
10
10
10
10
10
10
10
10
10
10
10
10
10
10
10
10
10
10
10
10
10
10
10
10
10
10
10
10
10
10
10
10
10
10
10
10
10
10
10
10
10
10
10
10
10
10
10
10
10
10
10
10
10
10
10
10
10
10
10
10
10
10
10
10
10
10
10
10
10
10
10
10
10
10
10
10
10
10
10
10
10
10
10
10
10
10
10
10
10
10
10
10
10
10
10
10
10
10
10
10
10
10
10
10
10
10
10
10
10
10
10
10
10
10
10
10
10
10
10
10
10
10
10
10
10
10
10
10
10
10
10
10
10
10
10
10
10
10
10
10
10
10
10
10
10
10
10
10
10
10
10
10
10
10
10
10
10
10
10
10
10
10
10
10
10
10
10
10
10
10
10
10
10
10
10
10
10
10
10
10
10
10
10
10
10
10
10
10
10
10
10
10
10

CELL_DATA 630
SCALARS cell_id int 1
LOOKUP_TABLE default
0
1
2
3
4
5
6
7
8
9
10
11
12
13
14
15
16
17
18
19
20
21
22
23
24
25
26
27
28
29
30
31
32
33
34
35
36
37
38
39
40
41
42
43
44
45
46
47
48
49
50
51
52
53
54
55
56
57
58
59
60
61
62
63
64
65
66
67
68
69
70
71
72
73
74
75
76
77
78
79
80
81
82
83
84
85
86
87
88
89
90
91
92
93
94
95
96
97
98
99
100
101
102
103
104
105
106
107
108
109
110
111
112
113
114
115
116
117
118
119
120
121
122
123
124
125
126
127
128
129
130
131
132
133
134
135
136
137
138
139
140
141
142
143
144
145
146
147
148
149
150
151
152
153
154
155
156
157
158
159
160
161
162
163
164
165
166
167
168
169
170
171
172
173
174
175
176
177
178
179
180
181
182
183
184
185
186
187
188
189
190
191
192
193
194
195
196
197
198
199
200
201
202
203
204
205
206
207
208
209
210
211
212
213
214
215
216
217
218
219
220
221
222
223
224
225
226
227
228
229
230
231
232
233
234
235
236
237
238
239
240
241
242
243
244
245
246
247
248
249
250
251
252
253
254
255
256
257
258
259
260
261
262
263
264
265
266
267
268
269
270
271
272
273
274
275
276
277
278
279
280
281
282
283
284
285
286
287
288
289
290
291
292
293
294
295
296
297
298
299
300
301
302
303
304
305
306
307
308
309
310
311
312
313
314
315
316
317
318
319
320
321
322
323
324
325
326
327
328
329
330
331
332
333
334
335
336
337
338
339
340
341
342
343
344
345
346
347
348
349
350
351
352
353
354
355
356
357
358
359
360
361
362
363
364
365
366
367
368
369
370
371
372
373
374
375
376
377
378
379
380
381
382
383
384
385
386
387
388
389
390
391
392
393
394
395
396
397
398
399
400
401
402
403
404
405
406
407
408
409
410
411
412
413
414
415
416
417
418
419
420
421
422
423
424
425
426
427
428
429
430
431
432
433
434
435
436
437
438
439
440
441
442
443
444
445
446
447
448
449
450
451
452
453
454
455
456
457
458
459
460
461
462
463
464
465
466
467
468
469
470
471
472
473
474
475
476
477
478
479
480
481
482
483
484
485
486
487
488
489
490
491
492
493
494
495
496
497
498
499
500
501
502
503
504
505
506
507
508
509
510
511
512
513
514
515
516
517
518
519
520
521
522
523
524
525
526
527
528
529
530
531
532
533
534
535
536
537
538
539
540
541
542
543
544
545
546
547
548
549
550
551
552
553
554
555
556
557
558
559
560
561
562
563
564
565
566
567
568
569
570
571
572
573
574
575
576
577
578
579
580
581
582
583
584
585
586
587
588
589
590
591
592
593
594
595
596
597
598
599
600
601
602
603
604
605
606
607
608
609
610
611
612
613
614
615
616
617
618
619
620
621
622
623
624
625
626
627
628
629
SCALARS boundary_face_count int 1
LOOKUP_TABLE default
1
1
1
1
0
1
2
2
0
1
2
2
1
1
0
1
1
1
1
1
1
1
1
1
1
0
0
2
2
0
1
1
1
0
2
0
0
0
1
1
1
1
1
1
1
1
0
1
1
0
0
1
1
2
1
1
1
1
0
1
0
0
1
1
1
1
1
1
1
2
2
1
1
1
1
1
1
1
1
0
1
1
1
1
1
0
1
1
1
1
1
1
1
1
1
2
1
1
0
1
1
0
1
0
1
1
1
1
0
1
2
1
1
1
1
1
0
1
1
2
1
1
1
1
1
1
2
2
2
1
1
0
2
1
1
1
0
1
1
1
1
1
2
1
1
1
1
2
1
2
1
1
1
1
1
1
2
1
0
1
1
1
1
1
1
2
2
1
1
2
1
2
2
2
2
2
1
0
1
2
1
1
1
0
1
1
2
1
0
0
0
1
2
1
2
1
0
1
0
1
1
2
1
1
1
1
2
1
0
1
1
0
1
1
1
2
1
1
1
0
2
1
1
0
0
1
0
1
2
1
0
0
1
0
0
1
2
1
1
2
1
0
0
1
1
1
1
2
2
1
2
1
1
0
2
0
1
1
2
0
1
2
1
1
0
0
0
1
1
1
1
2
0
1
1
1
1
0
1
1
2
1
1
2
0
1
1
1
0
1
1
2
1
0
1
1
2
1
0
2
0
1
0
1
1
2
2
0
1
0
1
0
1
1
1
1
0
1
0
1
1
1
1
1
1
1
0
2
0
1
2
1
0
2
2
0
1
1
1
1
0
1
1
1
0
1
1
1
1
1
1
1
2
0
1
1
0
0
1
0
1
0
1
1
1
1
0
0
0
1
0
2
1
1
0
1
0
1
2
0
1
1
1
1
1
1
1
1
1
1
0
1
1
1
1
0
1
1
1
1
0
0
1
1
1
1
0
1
1
1
1
1
0
0
1
0
0
1
1
1
1
1
1
0
1
0
2
0
1
1
1
1
1
1
1
2
1
1
1
1
0
1
0
0
0
1
1
1
0
1
1
1
1
1
0
0
1
0
1
1
0
1
1
0
1
1
1
1
1
0
1
2
0
1
2
0
0
1
1
2
1
1
0
1
1
1
1
1
1
1
1
0
1
1
0
1
0
1
0
1
1
0
1
0
0
1
1
1
0
1
1
0
1
1
1
0
1
0
1
1
1
0
0
1
1
1
1
1
1
1
0
0
0
0
0
1
0
1
0
1
1
1
1
1
1
0
1
1
1
0
1
0
1
0
1
0
1
0
1
1
1
1
1
1
1
1
0
1
1
1
1
0
0
1
1
1
2
1
0
1
1
0
1
1
1
0
0
1
0
1
1
1
0
1
0
1
0
1
1
0
1
1
1
0
1
0
1
0
1
0
0
1
1
0
1
1
1
0
1
0
1
1
1
1
1
1
0
0
1
1
SCALARS neighbor_count int 1
LOOKUP_TABLE default
3
3
3
3
4
3
2
2
4
3
2
2
3
3
4
3
3
3
3
3
3
3
3
3
3
4
4
2
2
4
3
3
3
4
2
4
4
4
3
3
3
3
3
3
3
3
4
3
3
4
4
3
3
2
3
3
3
3
4
3
4
4
3
3
3
3
3
3
3
2
2
3
3
3
3
3
3
3
3
4
3
3
3
3
3
4
3
3
3
3
3
3
3
3
3
2
3
3
4
3
3
4
3
4
3
3
3
3
4
3
2
3
3
3
3
3
4
3
3
2
3
3
3
3
3
3
2
2
2
3
3
4
2
3
3
3
4
3
3
3
3
3
2
3
3
3
3
2
3
2
3
3
3
3
3
3
2
3
4
3
3
3
3
3
3
2
2
3
3
2
3
2
2
2
2
2
3
4
3
2
3
3
3
4
3
3
2
3
4
4
4
3
2
3
2
3
4
3
4
3
3
2
3
3
3
3
2
3
4
3
3
4
3
3
3
2
3
3
3
4
2
3
3
4
4
3
4
3
2
3
4
4
3
4
4
3
2
3
3
2
3
4
4
3
3
3
3
2
2
3
2
3
3
4
2
4
3
3
2
4
3
2
3
3
4
4
4
3
3
3
3
2
4
3
3
3
3
4
3
3
2
3
3
2
4
3
3
3
4
3
3
2
3
4
3
3
2
3
4
2
4
3
4
3
3
2
2
4
3
4
3
4
3
3
3
3
4
3
4
3
3
3
3
3
3
3
4
2
4
3
2
3
4
2
2
4
3
3
3
3
4
3
3
3
4
3
3
3
3
3
3
3
2
4
3
3
4
4
3
4
3
4
3
3
3
3
4
4
4
3
4
2
3
3
4
3
4
3
2
4
3
3
3
3
3
3
3
3
3
3
4
3
3
3
3
4
3
3
3
3
4
4
3
3
3
3
4
3
3
3
3
3
4
4
3
4
4
3
3
3
3
3
3
4
3
4
2
4
3
3
3
3
3
3
3
2
3
3
3
3
4
3
4
4
4
3
3
3
4
3
3
3
3
3
4
4
3
4
3
3
4
3
3
4
3
3
3
3
3
4
3
2
4
3
2
4
4
3
3
2
3
3
4
3
3
3
3
3
3
3
3
4
3
3
4
3
4
3
4
3
3
4
3
4
4
3
3
3
4
3
3
4
3
3
3
4
3
4
3
3
3
4
4
3
3
3
3
3
3
3
4
4
4
4
4
3
4
3
4
3
3
3
3
3
3
4
3
3
3
4
3
4
3
4
3
4
3
4
3
3
3
3
3
3
3
3
4
3
3
3
3
4
4
3
3
3
2
3
4
3
3
4
3
3
3
4
4
3
4
3
3
3
4
3
4
3
4
3
3
4
3
3
3
4
3
4
3
4
3
4
4
3
3
4
3
3
3
4
3
4
3
3
3
3
3
3
4
4
3
3

POINT_DATA 272
SCALARS point_id int 1
LOOKUP_TABLE default
0
1
2
3
4
5
6
7
8
9
10
11
12
13
14
15
16
17
18
19
20
21
22
23
24
25
26
27
28
29
30
31
32
33
34
35
36
37
38
39
40
41
42
43
44
45
46
47
48
49
50
51
52
53
54
55
56
57
58
59
60
61
62
63
64
65
66
67
68
69
70
71
72
73
74
75
76
77
78
79
80
81
82
83
84
85
86
87
88
89
90
91
92
93
94
95
96
97
98
99
100
101
102
103
104
105
106
107
108
109
110
111
112
113
114
115
116
117
118
119
120
121
122
123
124
125
126
127
128
129
130
131
132
133
134
135
136
137
138
139
140
141
142
143
144
145
146
147
148
149
150
151
152
153
154
155
156
157
158
159
160
161
162
163
164
165
166
167
168
169
170
171
172
173
174
175
176
177
178
179
180
181
182
183
184
185
186
187
188
189
190
191
192
193
194
195
196
197
198
199
200
201
202
203
204
205
206
207
208
209
210
211
212
213
214
215
216
217
218
219
220
221
222
223
224
225
226
227
228
229
230
231
232
233
234
235
236
237
238
239
240
241
242
243
244
245
246
247
248
249
250
251
252
253
254
255
256
257
258
259
260
261
262
263
264
265
266
267
268
269
270
271
SCALARS is_boundary_point int 1
LOOKUP_TABLE default
1
1
1
1
1
1
1
1
1
1
1
1
1
1
1
1
1
1
1
1
1
1
1
1
1
1
1
1
1
1
1
1
1
1
1
1
1
1
1
1
1
1
1
1
1
1
1
1
1
1
1
1
1
1
1
1
1
1
1
1
1
1
1
1
1
1
1
1
1
1
1
1
1
1
1
1
1
1
1
1
1
1
1
1
1
1
1
1
1
1
1
1
1
1
1
1
1
1
1
1
1
1
1
1
1
1
1
1
1
1
1
1
1
1
1
1
1
1
1
1
1
1
1
1
1
1
1
1
1
1
1
1
1
1
1
1
1
1
1
1
1
1
1
1
1
1
1
1
1
1
1
1
1
1
1
1
1
1
1
1
1
1
1
1
1
1
1
1
1
1
1
1
1
1
1
1
1
1
1
1
1
1
1
1
1
1
1
1
1
1
1
1
1
1
1
1
1
1
1
1
1
1
1
1
1
1
1
1
1
1
1
1
1
1
1
1
1
1
1
1
1
1
1
1
1
1
1
1
1
1
1
1
1
1
1
1
1
1
1
1
1
1
1
1
1
1
1
1
1
1
1
1
1
1
1
1
1
1
1
1
1
1
1
1
1
1
1
1
1
1
1
1

CELL_DATA 630
SCALARS face_ids int 4
LOOKUP_TABLE default
1080 714 623 1051 
861 906 971 709 
745 751 678 732 
711 934 661 900 
654 933 992 1365 
739 640 278 877 
595 667 848 918 
682 644 423 667 
307 630 495 906 
884 1159 679 767 
780 918 742 1176 
789 1061 766 725 
811 986 615 760 
784 722 333 775 
662 753 872 844 
850 555 363 740 
344 893 800 1421 
378 864 745 591 
613 607 603 596 
592 810 782 589 
824 401 538 505 
575 819 570 527 
1451 773 426 461 
836 567 531 642 
847 614 818 866 
1086 604 797 553 
746 550 912 723 
1522 1453 772 548 
964 482 832 532 
621 615 645 771 
651 770 566 528 
834 684 696 874 
639 589 768 563 
526 854 787 862 
867 561 871 531 
876 970 798 855 
879 881 885 887 
810 687 361 894 
718 898 901 873 
905 676 551 747 
1129 916 1404 726 
856 920 305 927 
790 332 645 928 
814 503 939 627 
316 550 915 672 
938 1290 941 943 
505 1246 1311 829 
928 414 951 643 
950 805 888 795 
579 299 1015 676 
544 671 1082 924 
650 1453 723 560 
958 959 961 892 
1230 1408 625 948 
952 823 966 1211 
908 862 967 972 
1193 1294 692 1336 
973 565 922 974 
904 1094 633 976 
1322 978 939 946 
749 950 808 979 
825 583 684 394 
612 605 983 631 
735 407 870 831 
584 816 776 263 
852 300 542 606 
988 526 704 597 
290 993 955 1062 
641 666 998 544 
763 1078 525 523 
582 382 388 552 
520 1406 514 510 
925 855 509 540 
506 1175 512 743 
502 500 782 1001 
494 398 430 954 
491 489 1440 541 
578 487 778 896 
484 481 519 708 
468 554 917 463 
466 899 638 456 
1320 455 454 452 
385 1329 451 404 
839 787 450 725 
447 445 913 333 
580 569 679 444 
1063 1365 794 720 
563 361 868 524 
562 439 438 776 
457 1010 926 901 
432 1045 515 1440 
761 431 728 429 
433 428 835 571 
1214 427 422 1294 
1270 1278 419 294 
585 930 415 922 
411 305 410 801 
409 408 637 405 
402 500 744 661 
882 525 397 547 
937 497 653 734 
942 1316 557 759 
395 392 386 603 
289 884 1377 657 
644 1188 771 384 
383 1074 783 957 
681 366 380 379 
634 990 374 843 
788 996 374 412 
1408 437 1027 371 
617 934 367 768 
425 365 402 915 
452 798 362 360 
842 597 532 839 
353 351 731 804 
622 514 736 577 
968 343 947 1368 
599 340 338 451 
1111 566 1285 965 
1247 310 698 693 
1174 931 809 887 
535 542 594 390 
336 710 330 638 
327 1339 992 324 
849 851 458 1496 
572 278 1459 817 
322 1364 424 695 
321 826 320 759 
462 933 436 314 
602 405 468 703 
312 618 624 441 
1302 379 984 664 
309 813 1038 308 
306 1089 754 304 
475 561 504 674 
444 298 496 311 
347 1102 681 1074 
297 417 522 296 
293 995 976 655 
1283 629 1451 485 
348 288 357 285 
755 1235 356 717 
284 283 558 280 
286 979 929 764 
1397 277 1015 335 
397 308 628 396 
611 620 717 663 
748 289 492 664 
840 394 387 331 
271 270 587 1368 
269 485 267 549 
543 498 783 749 
266 264 400 1210 
890 377 557 568 
354 1091 472 1370 
292 1311 260 707 
259 569 257 646 
984 616 1377 977 
709 1002 1004 980 
1005 1008 1170 538 
1281 1222 522 880 
1011 1014 1016 1210 
1019 552 324 314 
434 472 648 1022 
1024 1025 756 565 
1026 1028 1417 1029 
1030 1032 629 1035 
1036 1436 1463 1039 
1042 1043 264 547 
1046 1016 1047 523 
774 1050 890 792 
1053 942 1056 688 
1057 446 792 688 
1059 1064 580 657 
1066 1102 1069 1302 
991 1075 1411 1076 
1081 1083 1054 1087 
300 1088 649 1166 
1090 1093 703 1096 
273 1098 364 1123 
794 1100 342 1133 
1101 1104 277 1446 
1107 554 756 1108 
568 354 301 581 
448 434 1114 537 
1050 581 1065 1115 
668 1114 1115 1110 
1116 1117 1478 364 
1169 1409 1120 1121 
804 707 1122 747 
648 1124 755 1125 
326 781 611 806 
1442 345 1175 524 
537 1124 1126 1128 
1017 1130 806 1128 
637 930 463 464 
267 401 1286 426 
1131 369 1281 1135 
663 297 306 1136 
1138 1139 683 1242 
781 1136 1140 529 
1260 1135 529 1357 
1142 499 1143 897 
1144 888 479 1145 
1150 1151 1378 280 
369 1152 891 1155 
669 1448 1155 1158 
1197 411 1448 713 
880 856 1160 1152 
649 1013 421 474 
687 1084 1161 1162 
410 689 457 699 
827 1116 718 1163 
545 1164 741 465 
713 689 1168 1171 
1172 1177 1163 1171 
1178 490 480 1180 
1181 572 1098 1182 
1184 1185 1186 980 
873 739 1036 1117 
985 591 1421 1189 
1191 1194 1198 1150 
705 1052 363 1201 
1459 1203 395 545 
1323 1207 1151 1329 
820 1208 613 1209 
338 1103 319 469 
1182 1203 765 1212 
372 508 1209 1212 
1213 675 1215 471 
596 814 368 1217 
954 921 712 1381 
875 909 1322 533 
1219 1221 1054 330 
775 1223 536 893 
1208 1217 1224 276 
1226 533 276 1228 
1105 1103 1079 879 
909 1229 1231 574 
1232 435 574 399 
1132 535 435 1034 
946 852 1456 1229 
594 1236 432 1424 
935 1243 1219 1245 
1248 1250 491 1251 
1252 892 604 282 
1034 1236 656 341 
828 1249 1251 341 
1254 1255 1506 874 
1250 1106 1297 878 
960 1055 878 1259 
1261 1111 1055 1263 
1264 1265 962 996 
541 651 433 1106 
1266 1257 1268 360 
1285 1269 562 1272 
837 1274 584 786 
1263 1269 757 1113 
997 1275 786 1113 
414 831 499 778 
1274 449 857 940 
1497 1092 940 1389 
1276 622 1092 1277 
1223 1253 678 1282 
263 520 350 449 
1284 1287 1289 728 
736 1049 447 1068 
1291 670 1000 1298 
478 344 784 329 
1299 1303 481 1528 
1277 1049 1304 1305 
853 796 329 1305 
1331 358 1306 1307 